 Gaussian 16, Revision B.01,
 Gaussian 16:  ES64L-G16RevB.01 20-Dec-2017

 ----------------------------------------------------------------------
 # opt=(calcfc,qst3) freq apfd/6-311+g(2d,p) geom=connectivity int=(ult
 rafine,acc2e=12)
 ----------------------------------------------------------------------

 -------
 Azirine
 -------
 Symbolic Z-matrix:
 Charge =  0 Multiplicity = 1

 ------------
 Acetonitrile
 ------------
 Symbolic Z-matrix:
 Charge =  0 Multiplicity = 1

 ------------------------
 TS Guess: HF QST3 result
 ------------------------
 Symbolic Z-matrix:
 Charge =  0 Multiplicity = 1

 SCF Done:  E(RAPFD) =  -132.527007554     A.U. after   12 cycles
 SCF Done:  E(RAPFD) =  -132.504966097     A.U. after   12 cycles
 SCF Done:  E(RAPFD) =  -132.487505203     A.U. after   11 cycles
 SCF Done:  E(RAPFD) =  -132.476152714     A.U. after   11 cycles
 SCF Done:  E(RAPFD) =  -132.470112657     A.U. after   12 cycles
 SCF Done:  E(RAPFD) =  -132.494423553     A.U. after   12 cycles
 SCF Done:  E(RAPFD) =  -132.510337201     A.U. after   12 cycles
 SCF Done:  E(RAPFD) =  -132.517586923     A.U. after   12 cycles
 SCF Done:  E(RAPFD) =  -132.521400857     A.U. after   12 cycles
 SCF Done:  E(RAPFD) =  -132.521075541     A.U. after   11 cycles
 SCF Done:  E(RAPFD) =  -132.525556390     A.U. after   12 cycles
 SCF Done:  E(RAPFD) =  -132.527356924     A.U. after   11 cycles
 SCF Done:  E(RAPFD) =  -132.528709093     A.U. after   12 cycles
 SCF Done:  E(RAPFD) =  -132.529339489     A.U. after   11 cycles
 SCF Done:  E(RAPFD) =  -132.529461539     A.U. after   10 cycles
 SCF Done:  E(RAPFD) =  -132.529542357     A.U. after   11 cycles
 SCF Done:  E(RAPFD) =  -132.529572394     A.U. after   11 cycles
 SCF Done:  E(RAPFD) =  -132.529574924     A.U. after    9 cycles
 SCF Done:  E(RAPFD) =  -132.529575411     A.U. after    9 cycles
 Optimization completed.
    -- Stationary point found.
 Normal termination of Gaussian 16 at Sat Sep 11 11:35:48 2021.

 ----------------------------------------------------------------------
 #N Geom=AllCheck Guess=TCheck SCRF=Check GenChk RAPFD/6-311+G(2d,p) Fr
 eq
 ----------------------------------------------------------------------

 Structure from the checkpoint file:  "e3_04_qst3.chk"
 -------
 Azirine
 -------
 Charge =  0 Multiplicity = 1

                         Standard orientation:
 ---------------------------------------------------------------------
 Center     Atomic      Atomic             Coordinates (Angstroms)
 Number     Number       Type             X           Y           Z
 ---------------------------------------------------------------------
      1          6           0       -1.213298    0.000499    0.034998
      2          6           0        0.159453    0.002085    0.114141
      3          1           0       -1.739832    0.940892   -0.042003
      4          1           0       -1.737785   -0.942574   -0.020550
      5          1           0        0.252754   -0.017540   -1.054690
      6          7           0        1.363991    0.000531    0.031773
 ---------------------------------------------------------------------

 SCF Done:  E(RAPFD) =  -132.529575411     A.U. after    1 cycles

 The electronic state is 1-A.
 Alpha  occ. eigenvalues --  -14.38402 -10.28617 -10.22818  -0.98129  -0.78441
 Alpha  occ. eigenvalues --   -0.55628  -0.49253  -0.48573  -0.40592  -0.36344
 Alpha  occ. eigenvalues --   -0.23766
 Alpha virt. eigenvalues --   -0.05506  -0.01177   0.00459   0.03966   0.05295
 Alpha virt. eigenvalues --    0.05865   0.09345   0.09764   0.09972   0.10790
 Alpha virt. eigenvalues --    0.13952   0.16432   0.21711   0.22129   0.23084

 Mulliken charges:
               1
     1  C   -0.479379
     2  C    0.185473
     3  H    0.155540
     4  H    0.155685
     5  H    0.346695
     6  N   -0.364015
 Sum of Mulliken charges =  -0.00000

 Dipole moment (field-independent basis, Debye):
    X=             -2.1741    Y=             -0.0171    Z=             -1.0543  Tot=              2.4163
 Quadrupole moment (field-independent basis, Debye-Ang):
   XX=            -22.1230   YY=            -17.5720   ZZ=            -18.4480
   XY=             -0.0048   XZ=             -0.2316   YZ=              0.0048

  Exact polarizability:  58.797  -0.009  21.751  -0.360   0.063  26.149
 Approx polarizability: 127.912  -0.035  29.191  -1.691   0.125  36.795

 ******    1 imaginary frequencies (negative Signs) ******

                      1                      2                      3
                      A                      A                      A
 Frequencies --  -1497.6327               370.4174               404.7725
 Red. masses --      1.0935                 6.1694                 3.0176
 Frc consts  --      1.4451                 0.4987                 0.2913
 IR Inten    --    558.2880                46.3365                 2.2618

                      4                      5                      6
                      A                      A                      A
 Frequencies --    534.8446               591.2168              1012.5571
 Red. masses --      1.0213                 1.2779                 1.5005
 Frc consts  --      0.1721                 0.2632                 0.9064
 IR Inten    --     17.4516                70.2169                 0.0304

                      7                      8                      9
                      A                      A                      A
 Frequencies --   1106.9290              1414.8595              2038.6626
 Red. masses --      4.0961                 1.2162                 8.4969
 Frc consts  --      2.9570                 1.4344                20.8065
 IR Inten    --      5.2141                23.1962               273.8508

                     10                     11                     12
                      A                      A                      A
 Frequencies --   2672.1745              3186.0012              3298.0790
 Red. masses --      1.0743                 1.0489                 1.1212
 Frc consts  --      4.5198                 6.2732                 7.1855
 IR Inten    --     92.3904                 9.9292                 3.1065

 - Thermochemistry -
 -------------------
 Temperature   298.150 Kelvin.  Pressure   1.00000 Atm.
 Atom     1 has atomic number  6 and mass  12.00000

 Molecular mass:    41.02655 amu.
 Principal axes and moments of inertia in atomic units:
                           1         2         3
     Eigenvalues --    10.95016 182.87219 184.69191
           X            1.00000  -0.00004  -0.00144
           Y            0.00004   1.00000  -0.00220
           Z            0.00144   0.00220   1.00000
 This molecule is an asymmetric top.
 Rotational symmetry number  1.
 Rotational temperatures (Kelvin)      7.90983     0.47363     0.46896
 Rotational constants (GHZ):         164.81419     9.86887     9.77163
    1 imaginary frequencies ignored.
 Zero-point vibrational energy      99472.6 (Joules/Mol)
                                   23.77451 (Kcal/Mol)
 Warning -- explicit consideration of   4 degrees of freedom as
           vibrations may cause significant error
 Vibrational temperatures:    532.95   582.38   769.52   850.63  1456.84
          (Kelvin)           1592.62  2035.67  2933.18  3844.66  4583.95
                             4745.20

 Zero-point correction=                           0.037887 (Hartree/Particle)
 Thermal correction to Energy=                    0.041795
 Thermal correction to Enthalpy=                  0.042739
 Thermal correction to Gibbs Free Energy=         0.013834
 Sum of electronic and zero-point Energies=           -132.491688
 Sum of electronic and thermal Energies=              -132.487780
 Sum of electronic and thermal Enthalpies=            -132.486836
 Sum of electronic and thermal Free Energies=         -132.515742

                     E (Thermal)             CV                S
                      KCal/Mol        Cal/Mol-Kelvin    Cal/Mol-Kelvin
 Total                   26.227             11.927             60.836
 Electronic               0.000              0.000              0.000
 Translational            0.889              2.981             37.062
 Rotational               0.889              2.981             20.542
 Vibrational             24.449              5.966              3.232
 Vibration     1          0.742              1.533              1.078
 Vibration     2          0.770              1.460              0.945
 Vibration     3          0.890              1.173              0.576
 Vibration     4          0.949              1.050              0.465

                           ! Non-Optimized Parameters !
 Normal termination of Gaussian 16 at Sat Sep 11 11:36:01 2021.
